
Predictions were generated on 14-Aug-2020 at 15:41:23 using BeamDyn




Time	TipTDxr   	TipTDyr   	TipTDzr   	TipRDxr   	TipRDyr   	TipRDzr   
(s)	(m)	(m)	(m)	(-)	(-)	(-)
       0.000000	        0.0000000000000000E+00	        0.0000000000000000E+00	        0.0000000000000000E+00	        0.0000000000000000E+00	        0.0000000000000000E+00	        0.0000000000000000E+00
      20.000000	       -6.0946422707813550E+00	        0.0000000000000000E+00	       -2.6048884359669531E+00	        0.0000000000000000E+00	       -1.0186994797899498E+00	        0.0000000000000000E+00
      40.000000	       -6.0946422619503071E+00	        0.0000000000000000E+00	       -2.6048884260857186E+00	        0.0000000000000000E+00	       -1.0186994773502660E+00	        0.0000000000000000E+00
