
Predictions were generated on 14-Aug-2020 at 15:42:54 using BeamDyn




Time	TipTDxr   	TipTDyr   	TipTDzr   	TipRDxr   	TipRDyr   	TipRDzr   
(s)	(m)	(m)	(m)	(-)	(-)	(-)
       0.000000	        0.0000000000000000E+00	        0.0000000000000000E+00	        0.0000000000000000E+00	        0.0000000000000000E+00	        0.0000000000000000E+00	        0.0000000000000000E+00
      20.000000	       -6.9896181309775915E+00	        0.0000000000000000E+00	       -3.6632406601177552E+00	        0.0000000000000000E+00	       -1.2176664066578955E+00	        0.0000000000000000E+00
      40.000000	       -6.9896181279062759E+00	        0.0000000000000000E+00	       -3.6632406551438406E+00	        0.0000000000000000E+00	       -1.2176664054958664E+00	        0.0000000000000000E+00
