
Predictions were generated on 02-Sep-2020 at 13:16:13 using BeamDyn




Time	TipTDxr             	TipTDyr             	TipTDzr             	TipRDxr             	TipRDyr             	TipRDzr             
(s)	(m)	(m)	(m)	(-)	(-)	(-)
       0.000000	        0.0000000000000000E+00	        0.0000000000000000E+00	        0.0000000000000000E+00	        0.0000000000000000E+00	        0.0000000000000000E+00	        0.0000000000000000E+00
      20.000000	       -1.5273663081019745E+01	       -7.6444694833982446E-02	       -1.1444717870868146E+00	        2.0291404388087615E-03	       -1.7448948650409671E-01	        1.5420777318722571E-04
      40.000000	       -1.5273654528042519E+01	       -7.6444899980647768E-02	       -1.1444704536875321E+00	        2.0291371391237306E-03	       -1.7448935517707534E-01	        1.5426316514288816E-04
      60.000000	       -1.5273654527811098E+01	       -7.6444899977643199E-02	       -1.1444704536519765E+00	        2.0291371391551283E-03	       -1.7448935517364922E-01	        1.5426316388689982E-04
