
Predictions were generated on 14-Dec-2020 at 12:31:41 using BeamDyn




Time	TipTDxr             	TipTDyr             	TipTDzr             	TipRDxr             	TipRDyr             	TipRDzr             
(s)	(m)	(m)	(m)	(-)	(-)	(-)
       0.000000	        0.0000000000000000E+00	        0.0000000000000000E+00	        0.0000000000000000E+00	        0.0000000000000000E+00	        0.0000000000000000E+00	        0.0000000000000000E+00
      20.000000	       -2.3226779135434770E+00	       -1.4919100454056622E-01	       -3.0066878337429515E-01	       -1.5039512196781775E-03	       -3.1379742676253880E-01	        1.7306387672542012E-01
      40.000000	       -2.3227088350912535E+00	       -1.4919395056630647E-01	       -3.0067778834619574E-01	       -1.5041701686724735E-03	       -3.1380197712298330E-01	        1.7306605436783123E-01
