
Predictions were generated on 14-Aug-2020 at 15:40:34 using BeamDyn




Time	TipTDxr   	TipTDyr   	TipTDzr   	TipRDxr   	TipRDyr   	TipRDzr   
(s)	(m)	(m)	(m)	(-)	(-)	(-)
       0.000000	        0.0000000000000000E+00	        0.0000000000000000E+00	        0.0000000000000000E+00	        0.0000000000000000E+00	        0.0000000000000000E+00	        0.0000000000000000E+00
      20.000000	       -1.0243843457764801E-01	        0.0000000000000000E+00	       -6.2937261421502910E-04	        0.0000000000000000E+00	       -1.5358549725895372E-02	        0.0000000000000000E+00
      40.000000	       -1.0243843457764540E-01	        0.0000000000000000E+00	       -6.2937261436246672E-04	        0.0000000000000000E+00	       -1.5358549725895286E-02	        0.0000000000000000E+00
