
Predictions were generated on 14-Dec-2020 at 12:28:56 using BeamDyn




Time	TipTDxr             	TipTDyr             	TipTDzr             	TipRDxr             	TipRDyr             	TipRDzr             
(s)	(m)	(m)	(m)	(-)	(-)	(-)
       0.000000	        0.0000000000000000E+00	        0.0000000000000000E+00	        0.0000000000000000E+00	        0.0000000000000000E+00	        0.0000000000000000E+00	        0.0000000000000000E+00
      20.000000	       -1.3510377845751691E+01	       -7.4003768882195647E-02	        5.6694347834341698E+00	        1.8723355274555594E-03	       -1.6877472828205614E-01	       -6.3163585854828343E-04
      40.000000	       -1.3510211343071788E+01	       -7.3996498532335572E-02	        5.6693723415335739E+00	        1.8723821596731856E-03	       -1.6877215025257011E-01	       -6.3127320131065230E-04
      60.000000	       -1.3510211343071781E+01	       -7.3996498532356000E-02	        5.6693723415335455E+00	        1.8723821596714179E-03	       -1.6877215025257014E-01	       -6.3127320131417769E-04
