
Predictions were generated on 14-Aug-2020 at 15:41:09 using BeamDyn




Time	TipTDxr   	TipTDyr   	TipTDzr   	TipRDxr   	TipRDyr   	TipRDzr   
(s)	(m)	(m)	(m)	(-)	(-)	(-)
       0.000000	        0.0000000000000000E+00	        0.0000000000000000E+00	        0.0000000000000000E+00	        0.0000000000000000E+00	        0.0000000000000000E+00	        0.0000000000000000E+00
      20.000000	       -1.9669584391676695E+00	        0.0000000000000000E+00	       -2.3518692332895696E-01	        0.0000000000000000E+00	       -2.9780762646981740E-01	        0.0000000000000000E+00
      40.000000	       -1.9670679560483879E+00	        0.0000000000000000E+00	       -2.3521426934343204E-01	        0.0000000000000000E+00	       -2.9782542761665121E-01	        0.0000000000000000E+00
