
Predictions were generated on 14-Dec-2020 at 12:31:46 using BeamDyn




Time	TipTDxr             	TipTDyr             	TipTDzr             	TipRDxr             	TipRDyr             	TipRDzr             
(s)	(m)	(m)	(m)	(-)	(-)	(-)
       0.000000	        0.0000000000000000E+00	        0.0000000000000000E+00	        0.0000000000000000E+00	        0.0000000000000000E+00	        0.0000000000000000E+00	        0.0000000000000000E+00
      20.000000	       -3.2703871768562154E+00	       -3.0172695841130714E-01	       -6.0830731743664046E-01	       -2.9779802615411224E-03	       -4.4842090917188598E-01	        2.4710922753350470E-01
      40.000000	       -3.2703872483015108E+00	       -3.0172699921823698E-01	       -6.0830733147520810E-01	       -2.9779863844886659E-03	       -4.4842089389358769E-01	        2.4710927482457831E-01
