
Predictions were generated on 14-Dec-2020 at 12:31:04 using BeamDyn




Time	TipTDxr             	TipTDyr             	TipTDzr             	TipRDxr             	TipRDyr             	TipRDzr             
(s)	(m)	(m)	(m)	(-)	(-)	(-)
       0.000000	        0.0000000000000000E+00	        0.0000000000000000E+00	        0.0000000000000000E+00	        0.0000000000000000E+00	        0.0000000000000000E+00	        0.0000000000000000E+00
      20.000000	       -6.4594891421685166E+00	       -1.3591541124825324E+00	       -2.7516291135923261E+00	       -9.3023861558059143E-03	       -9.8043826994821537E-01	        5.3646346455520555E-01
      40.000000	       -6.4594902070583053E+00	       -1.3591580748236991E+00	       -2.7516289157643170E+00	       -9.3047034424332264E-03	       -9.8043539809131164E-01	        5.3646857761721412E-01
