
Predictions were generated on 10-Sep-2020 at 15:49:40 using BeamDyn




Time	TipTDxr             	TipTDyr             	TipTDzr             	TipRDxr             	TipRDyr             	TipRDzr             
(s)	(m)	(m)	(m)	(-)	(-)	(-)
       0.000000	        0.0000000000000000E+00	        0.0000000000000000E+00	        0.0000000000000000E+00	        0.0000000000000000E+00	        0.0000000000000000E+00	        0.0000000000000000E+00
      20.000000	       -1.2134536005397216E+00	       -4.0145679462018524E-02	       -8.0896955896459843E-02	       -4.0936202853396732E-04	       -1.6222682622560819E-01	        8.9497479887854461E-02
      40.000000	       -1.2134546837526279E+00	       -4.0145756455340909E-02	       -8.0897077519159311E-02	       -4.0936111956596738E-04	       -1.6222694903833049E-01	        8.9497577974838621E-02
