
Predictions were generated on 17-Aug-2020 at 09:33:50 using BeamDyn




Time	TipTDxr   	TipTDyr   	TipTDzr   	TipRDxr   	TipRDyr   	TipRDzr   
(s)	(m)	(m)	(m)	(-)	(-)	(-)
       0.000000	        0.0000000000000000E+00	        0.0000000000000000E+00	        0.0000000000000000E+00	        0.0000000000000000E+00	        0.0000000000000000E+00	        0.0000000000000000E+00
      20.000000	       -5.3354424602067834E+00	        0.0000000000000000E+00	       -1.9123479970600705E+00	        0.0000000000000000E+00	       -8.6669821642504241E-01	        0.0000000000000000E+00
      40.000000	       -5.3354401715213049E+00	        0.0000000000000000E+00	       -1.9123492311359058E+00	        0.0000000000000000E+00	       -8.6669808613326060E-01	        0.0000000000000000E+00
