
Predictions were generated on 02-Sep-2020 at 13:16:10 using BeamDyn




Time	TipTDxr             	TipTDyr             	TipTDzr             	TipRDxr             	TipRDyr             	TipRDzr             
(s)	(m)	(m)	(m)	(-)	(-)	(-)
       0.000000	        0.0000000000000000E+00	        0.0000000000000000E+00	        0.0000000000000000E+00	        0.0000000000000000E+00	        0.0000000000000000E+00	        0.0000000000000000E+00
      20.000000	       -2.0154691836623996E+01	       -1.0171395215049457E-01	       -2.0008957266490910E+00	        2.6858831774898267E-03	       -2.3093097375246469E-01	        2.6970645136795531E-04
      40.000000	       -2.0154758501184727E+01	       -1.0171332515175036E-01	       -2.0009096524933199E+00	        2.6858897813535221E-03	       -2.3093193260680492E-01	        2.6965469830614997E-04
      60.000000	       -2.0154758501184759E+01	       -1.0171332515175513E-01	       -2.0009096524932914E+00	        2.6858897813534935E-03	       -2.3093193260680497E-01	        2.6965469830658717E-04
