
Predictions were generated on 14-Aug-2020 at 15:38:06 using BeamDyn




Time	TipTDxr   	TipTDyr   	TipTDzr   	TipRDxr   	TipRDyr   	TipRDzr   
(s)	(m)	(m)	(m)	(-)	(-)	(-)
       0.000000	        0.0000000000000000E+00	        0.0000000000000000E+00	        0.0000000000000000E+00	        0.0000000000000000E+00	        0.0000000000000000E+00	        0.0000000000000000E+00
      20.000000	       -2.5612198526995082E-02	        0.0000000000000000E+00	       -3.9342420061316830E-05	        0.0000000000000000E+00	       -3.8399312567554919E-03	        0.0000000000000000E+00
      40.000000	       -2.5612198526995068E-02	        0.0000000000000000E+00	       -3.9342420063093186E-05	        0.0000000000000000E+00	       -3.8399312567554940E-03	        0.0000000000000000E+00
