
Predictions were generated on 17-Aug-2020 at 09:33:34 using BeamDyn




Time	TipTDxr   	TipTDyr   	TipTDzr   	TipRDxr   	TipRDyr   	TipRDzr   
(s)	(m)	(m)	(m)	(-)	(-)	(-)
       0.000000	        0.0000000000000000E+00	        0.0000000000000000E+00	        0.0000000000000000E+00	        0.0000000000000000E+00	        0.0000000000000000E+00	        0.0000000000000000E+00
      20.000000	       -4.8201137259564195E+00	        0.0000000000000000E+00	       -1.5242463936820752E+00	        0.0000000000000000E+00	       -7.7038168270299723E-01	        0.0000000000000000E+00
      40.000000	       -4.8201137242924590E+00	        0.0000000000000000E+00	       -1.5242463947860703E+00	        0.0000000000000000E+00	       -7.7038168260486906E-01	        0.0000000000000000E+00
