
Predictions were generated on 14-Aug-2020 at 15:41:19 using BeamDyn




Time	TipTDxr   	TipTDyr   	TipTDzr   	TipRDxr   	TipRDyr   	TipRDzr   
(s)	(m)	(m)	(m)	(-)	(-)	(-)
       0.000000	        0.0000000000000000E+00	        0.0000000000000000E+00	        0.0000000000000000E+00	        0.0000000000000000E+00	        0.0000000000000000E+00	        0.0000000000000000E+00
      20.000000	       -4.1792638469204091E+00	        0.0000000000000000E+00	       -1.1182267056134183E+00	        0.0000000000000000E+00	       -6.5666135402708237E-01	        0.0000000000000000E+00
      40.000000	       -4.1792652103134147E+00	        0.0000000000000000E+00	       -1.1182275247409201E+00	        0.0000000000000000E+00	       -6.5666163395208854E-01	        0.0000000000000000E+00
