
Predictions were generated on 14-Dec-2020 at 12:28:45 using BeamDyn




Time	TipTDxr             	TipTDyr             	TipTDzr             	TipRDxr             	TipRDyr             	TipRDzr             
(s)	(m)	(m)	(m)	(-)	(-)	(-)
       0.000000	        0.0000000000000000E+00	        0.0000000000000000E+00	        0.0000000000000000E+00	        0.0000000000000000E+00	        0.0000000000000000E+00	        0.0000000000000000E+00
      20.000000	       -4.2765544151827726E+00	       -2.4589707499173771E-02	        2.0444753075389457E+00	        5.9752737334742691E-04	       -5.4455761167720260E-02	       -2.3326555252513258E-04
      40.000000	       -4.2765542798115206E+00	       -2.4589719265359192E-02	        2.0444752403670066E+00	        5.9752718986475514E-04	       -5.4455759012832380E-02	       -2.3326611634310655E-04
      60.000000	       -4.2765542798115206E+00	       -2.4589719265467630E-02	        2.0444752403670208E+00	        5.9752718986079737E-04	       -5.4455759012832325E-02	       -2.3326611635234100E-04
