
Predictions were generated on 14-Dec-2020 at 12:31:17 using BeamDyn




Time	TipTDxr             	TipTDyr             	TipTDzr             	TipRDxr             	TipRDyr             	TipRDzr             
(s)	(m)	(m)	(m)	(-)	(-)	(-)
       0.000000	        0.0000000000000000E+00	        0.0000000000000000E+00	        0.0000000000000000E+00	        0.0000000000000000E+00	        0.0000000000000000E+00	        0.0000000000000000E+00
      20.000000	       -4.0489225507144928E+00	       -4.7309007463732966E-01	       -9.5423492326267834E-01	       -4.5346376336097092E-03	       -5.6450481311538536E-01	        3.1077998204660862E-01
      40.000000	       -4.0489225187433977E+00	       -4.7309004271657740E-01	       -9.5423492285865663E-01	       -4.5346377733509764E-03	       -5.6450481619774451E-01	        3.1077996692564758E-01
