
Predictions were generated on 14-Aug-2020 at 15:41:15 using BeamDyn




Time	TipTDxr   	TipTDyr   	TipTDzr   	TipRDxr   	TipRDyr   	TipRDzr   
(s)	(m)	(m)	(m)	(-)	(-)	(-)
       0.000000	        0.0000000000000000E+00	        0.0000000000000000E+00	        0.0000000000000000E+00	        0.0000000000000000E+00	        0.0000000000000000E+00	        0.0000000000000000E+00
      20.000000	       -2.4072975339202030E+00	        0.0000000000000000E+00	       -3.5471441054267494E-01	        0.0000000000000000E+00	       -3.6630349255308359E-01	        0.0000000000000000E+00
      40.000000	       -2.4074393776324352E+00	        0.0000000000000000E+00	       -3.5476066715905930E-01	        0.0000000000000000E+00	       -3.6632881847310056E-01	        0.0000000000000000E+00
