
Predictions were generated on 14-Aug-2020 at 15:41:00 using BeamDyn




Time	TipTDxr   	TipTDyr   	TipTDzr   	TipRDxr   	TipRDyr   	TipRDzr   
(s)	(m)	(m)	(m)	(-)	(-)	(-)
       0.000000	        0.0000000000000000E+00	        0.0000000000000000E+00	        0.0000000000000000E+00	        0.0000000000000000E+00	        0.0000000000000000E+00	        0.0000000000000000E+00
      20.000000	       -1.0136598954958589E+00	        0.0000000000000000E+00	       -6.1842295385160284E-02	        0.0000000000000000E+00	       -1.5236617062267493E-01	        0.0000000000000000E+00
      40.000000	       -1.0136598993763692E+00	        0.0000000000000000E+00	       -6.1842295870247810E-02	        0.0000000000000000E+00	       -1.5236617124376109E-01	        0.0000000000000000E+00
