
Predictions were generated on 14-Aug-2020 at 15:40:56 using BeamDyn




Time	TipTDxr   	TipTDyr   	TipTDzr   	TipRDxr   	TipRDyr   	TipRDzr   
(s)	(m)	(m)	(m)	(-)	(-)	(-)
       0.000000	        0.0000000000000000E+00	        0.0000000000000000E+00	        0.0000000000000000E+00	        0.0000000000000000E+00	        0.0000000000000000E+00	        0.0000000000000000E+00
      20.000000	       -5.1087277494031824E-01	        0.0000000000000000E+00	       -1.5666787476442678E-02	        0.0000000000000000E+00	       -7.6642979272203801E-02	        0.0000000000000000E+00
      40.000000	       -5.1087278199395103E-01	        0.0000000000000000E+00	       -1.5666800689793092E-02	        0.0000000000000000E+00	       -7.6642980624188853E-02	        0.0000000000000000E+00
