
Predictions were generated on 14-Aug-2020 at 15:40:43 using BeamDyn




Time	TipTDxr   	TipTDyr   	TipTDzr   	TipRDxr   	TipRDyr   	TipRDzr   
(s)	(m)	(m)	(m)	(-)	(-)	(-)
       0.000000	        0.0000000000000000E+00	        0.0000000000000000E+00	        0.0000000000000000E+00	        0.0000000000000000E+00	        0.0000000000000000E+00	        0.0000000000000000E+00
      20.000000	       -2.0481062076618387E-01	        0.0000000000000000E+00	       -2.5161335122394490E-03	        0.0000000000000000E+00	       -3.0709582844010437E-02	        0.0000000000000000E+00
      40.000000	       -2.0481062076631443E-01	        0.0000000000000000E+00	       -2.5161335424090936E-03	        0.0000000000000000E+00	       -3.0709582844181630E-02	        0.0000000000000000E+00
