
Predictions were generated on 02-Sep-2020 at 17:06:29 using BeamDyn




Time	TipTDxr             	TipTDyr             	TipTDzr             	TipRDxr             	TipRDyr             	TipRDzr             
(s)	(m)	(m)	(m)	(-)	(-)	(-)
       0.000000	        0.0000000000000000E+00	        0.0000000000000000E+00	        0.0000000000000000E+00	        0.0000000000000000E+00	        0.0000000000000000E+00	        0.0000000000000000E+00
      20.000000	       -1.0259906574998571E+01	       -5.1038638099853435E-02	       -5.1489671320770469E-01	        1.3599599632041566E-03	       -1.1695798148004345E-01	        6.9561587977073368E-05
      40.000000	       -1.0259906543299515E+01	       -5.1038637963589643E-02	       -5.1489670994791936E-01	        1.3599599754564073E-03	       -1.1695798097929053E-01	        6.9561376758837772E-05
      60.000000	       -1.0259906543299524E+01	       -5.1038637963599531E-02	       -5.1489670994790515E-01	        1.3599599754563574E-03	       -1.1695798097929061E-01	        6.9561376761213530E-05
