
Predictions were generated on 13-Sep-2021 at 10:13:04 using BeamDyn




Time	RootFxr             	RootFyr             	RootFzr             	RootMxr             	RootMyr             	RootMzr             	TipTDxr             	TipTDyr             	TipTDzr             	TipRDxr             	TipRDyr             	TipRDzr             
(s)	(N)	(N)	(N)	(N-m)	(N-m)	(N-m)	(m)	(m)	(m)	(-)	(-)	(-)
       0.000000	 3.099E+00	-5.479E+05	 7.651E+05	 1.495E+07	 1.335E+05	-4.275E+03	 3.171E-01	-1.146E+00	 9.343E-03	 1.499E-02	 5.233E-03	 5.989E-03
       0.010000	 5.695E+01	-5.473E+05	 7.573E+05	 1.495E+07	 1.328E+05	-4.153E+03	 3.172E-01	-1.146E+00	 9.354E-03	 1.498E-02	 5.243E-03	 5.982E-03
       0.020000	-1.117E+01	-5.462E+05	 7.581E+05	 1.494E+07	 1.308E+05	-3.883E+03	 3.173E-01	-1.146E+00	 9.364E-03	 1.499E-02	 5.271E-03	 5.972E-03
       0.030000	-2.040E+02	-5.449E+05	 7.635E+05	 1.493E+07	 1.289E+05	-3.592E+03	 3.175E-01	-1.146E+00	 9.386E-03	 1.499E-02	 5.317E-03	 5.959E-03
       0.040000	-2.856E+02	-5.436E+05	 7.674E+05	 1.492E+07	 1.291E+05	-3.451E+03	 3.177E-01	-1.146E+00	 9.414E-03	 1.499E-02	 5.377E-03	 5.948E-03
       0.050000	-1.108E+02	-5.423E+05	 7.702E+05	 1.491E+07	 1.319E+05	-3.517E+03	 3.180E-01	-1.146E+00	 9.445E-03	 1.499E-02	 5.445E-03	 5.939E-03
       0.060000	 2.749E+02	-5.411E+05	 7.726E+05	 1.489E+07	 1.365E+05	-3.690E+03	 3.183E-01	-1.146E+00	 9.474E-03	 1.499E-02	 5.514E-03	 5.929E-03
       0.070000	 7.173E+02	-5.400E+05	 7.750E+05	 1.488E+07	 1.412E+05	-3.820E+03	 3.185E-01	-1.146E+00	 9.500E-03	 1.499E-02	 5.578E-03	 5.919E-03
       0.080000	 1.056E+03	-5.388E+05	 7.776E+05	 1.486E+07	 1.442E+05	-3.789E+03	 3.187E-01	-1.146E+00	 9.520E-03	 1.499E-02	 5.632E-03	 5.909E-03
       0.090000	 1.190E+03	-5.376E+05	 7.803E+05	 1.485E+07	 1.446E+05	-3.554E+03	 3.188E-01	-1.146E+00	 9.533E-03	 1.499E-02	 5.675E-03	 5.899E-03
       0.100000	 1.108E+03	-5.363E+05	 7.830E+05	 1.483E+07	 1.422E+05	-3.146E+03	 3.189E-01	-1.145E+00	 9.541E-03	 1.500E-02	 5.707E-03	 5.892E-03
       0.110000	 8.673E+02	-5.350E+05	 7.857E+05	 1.481E+07	 1.376E+05	-2.631E+03	 3.189E-01	-1.145E+00	 9.543E-03	 1.500E-02	 5.728E-03	 5.887E-03
       0.120000	 5.586E+02	-5.335E+05	 7.883E+05	 1.479E+07	 1.319E+05	-2.078E+03	 3.188E-01	-1.145E+00	 9.542E-03	 1.500E-02	 5.744E-03	 5.885E-03
       0.130000	 2.673E+02	-5.321E+05	 7.909E+05	 1.477E+07	 1.262E+05	-1.536E+03	 3.188E-01	-1.145E+00	 9.540E-03	 1.500E-02	 5.757E-03	 5.885E-03
       0.140000	 4.717E+01	-5.306E+05	 7.934E+05	 1.475E+07	 1.211E+05	-1.035E+03	 3.187E-01	-1.145E+00	 9.538E-03	 1.500E-02	 5.771E-03	 5.888E-03
       0.150000	-8.425E+01	-5.290E+05	 7.960E+05	 1.472E+07	 1.171E+05	-5.844E+02	 3.187E-01	-1.144E+00	 9.540E-03	 1.500E-02	 5.791E-03	 5.895E-03
       0.160000	-1.359E+02	-5.275E+05	 7.986E+05	 1.469E+07	 1.142E+05	-1.806E+02	 3.187E-01	-1.144E+00	 9.545E-03	 1.500E-02	 5.818E-03	 5.907E-03
       0.170000	-1.299E+02	-5.259E+05	 8.011E+05	 1.467E+07	 1.122E+05	 1.911E+02	 3.188E-01	-1.144E+00	 9.555E-03	 1.501E-02	 5.853E-03	 5.923E-03
       0.180000	-9.173E+01	-5.243E+05	 8.037E+05	 1.464E+07	 1.108E+05	 5.545E+02	 3.189E-01	-1.144E+00	 9.569E-03	 1.502E-02	 5.892E-03	 5.943E-03
       0.190000	-4.527E+01	-5.227E+05	 8.062E+05	 1.461E+07	 1.097E+05	 9.362E+02	 3.191E-01	-1.143E+00	 9.586E-03	 1.503E-02	 5.935E-03	 5.965E-03
       0.200000	-1.160E+01	-5.211E+05	 8.087E+05	 1.458E+07	 1.085E+05	 1.358E+03	 3.193E-01	-1.143E+00	 9.607E-03	 1.504E-02	 5.978E-03	 5.987E-03
       0.210000	-7.654E+00	-5.194E+05	 8.112E+05	 1.454E+07	 1.070E+05	 1.829E+03	 3.195E-01	-1.142E+00	 9.630E-03	 1.505E-02	 6.019E-03	 6.007E-03
       0.220000	-4.353E+01	-5.176E+05	 8.137E+05	 1.451E+07	 1.051E+05	 2.345E+03	 3.197E-01	-1.142E+00	 9.655E-03	 1.506E-02	 6.057E-03	 6.024E-03
       0.230000	-1.194E+02	-5.159E+05	 8.161E+05	 1.447E+07	 1.028E+05	 2.887E+03	 3.200E-01	-1.141E+00	 9.683E-03	 1.506E-02	 6.093E-03	 6.040E-03
       0.240000	-2.237E+02	-5.141E+05	 8.186E+05	 1.444E+07	 1.003E+05	 3.427E+03	 3.202E-01	-1.140E+00	 9.715E-03	 1.507E-02	 6.127E-03	 6.053E-03
       0.250000	-3.365E+02	-5.123E+05	 8.211E+05	 1.440E+07	 9.784E+04	 3.937E+03	 3.205E-01	-1.139E+00	 9.753E-03	 1.507E-02	 6.162E-03	 6.066E-03
       0.260000	-4.323E+02	-5.105E+05	 8.235E+05	 1.436E+07	 9.588E+04	 4.394E+03	 3.209E-01	-1.138E+00	 9.797E-03	 1.507E-02	 6.200E-03	 6.079E-03
       0.270000	-4.890E+02	-5.087E+05	 8.259E+05	 1.432E+07	 9.469E+04	 4.784E+03	 3.213E-01	-1.137E+00	 9.848E-03	 1.507E-02	 6.243E-03	 6.091E-03
       0.280000	-4.920E+02	-5.069E+05	 8.284E+05	 1.428E+07	 9.443E+04	 5.104E+03	 3.218E-01	-1.136E+00	 9.908E-03	 1.507E-02	 6.292E-03	 6.102E-03
       0.290000	-4.397E+02	-5.050E+05	 8.308E+05	 1.424E+07	 9.511E+04	 5.359E+03	 3.224E-01	-1.134E+00	 9.977E-03	 1.507E-02	 6.348E-03	 6.110E-03
       0.300000	-3.422E+02	-5.031E+05	 8.332E+05	 1.419E+07	 9.657E+04	 5.562E+03	 3.230E-01	-1.132E+00	 1.005E-02	 1.505E-02	 6.410E-03	 6.114E-03
       0.310000	-2.178E+02	-5.011E+05	 8.356E+05	 1.415E+07	 9.853E+04	 5.732E+03	 3.236E-01	-1.130E+00	 1.014E-02	 1.504E-02	 6.476E-03	 6.112E-03
       0.320000	-8.765E+01	-4.991E+05	 8.379E+05	 1.410E+07	 1.007E+05	 5.886E+03	 3.243E-01	-1.128E+00	 1.023E-02	 1.502E-02	 6.546E-03	 6.103E-03
       0.330000	 2.875E+01	-4.971E+05	 8.403E+05	 1.405E+07	 1.027E+05	 6.039E+03	 3.250E-01	-1.126E+00	 1.032E-02	 1.500E-02	 6.616E-03	 6.088E-03
       0.340000	 1.180E+02	-4.950E+05	 8.427E+05	 1.401E+07	 1.044E+05	 6.201E+03	 3.258E-01	-1.123E+00	 1.043E-02	 1.497E-02	 6.685E-03	 6.065E-03
       0.350000	 1.742E+02	-4.930E+05	 8.450E+05	 1.396E+07	 1.057E+05	 6.373E+03	 3.265E-01	-1.120E+00	 1.053E-02	 1.494E-02	 6.753E-03	 6.036E-03
       0.360000	 1.991E+02	-4.909E+05	 8.474E+05	 1.391E+07	 1.065E+05	 6.548E+03	 3.272E-01	-1.117E+00	 1.064E-02	 1.491E-02	 6.819E-03	 6.003E-03
       0.370000	 1.999E+02	-4.889E+05	 8.497E+05	 1.385E+07	 1.069E+05	 6.716E+03	 3.279E-01	-1.114E+00	 1.074E-02	 1.487E-02	 6.882E-03	 5.965E-03
       0.380000	 1.868E+02	-4.868E+05	 8.520E+05	 1.380E+07	 1.071E+05	 6.860E+03	 3.286E-01	-1.111E+00	 1.086E-02	 1.483E-02	 6.944E-03	 5.924E-03
       0.390000	 1.701E+02	-4.847E+05	 8.543E+05	 1.375E+07	 1.071E+05	 6.967E+03	 3.293E-01	-1.107E+00	 1.097E-02	 1.478E-02	 7.005E-03	 5.882E-03
       0.400000	 1.580E+02	-4.827E+05	 8.566E+05	 1.370E+07	 1.072E+05	 7.028E+03	 3.300E-01	-1.103E+00	 1.109E-02	 1.472E-02	 7.065E-03	 5.838E-03
       0.410000	 1.548E+02	-4.806E+05	 8.589E+05	 1.364E+07	 1.073E+05	 7.038E+03	 3.306E-01	-1.099E+00	 1.121E-02	 1.466E-02	 7.125E-03	 5.793E-03
       0.420000	 1.606E+02	-4.786E+05	 8.612E+05	 1.359E+07	 1.074E+05	 7.003E+03	 3.312E-01	-1.094E+00	 1.133E-02	 1.460E-02	 7.184E-03	 5.746E-03
       0.430000	 1.718E+02	-4.765E+05	 8.634E+05	 1.354E+07	 1.075E+05	 6.931E+03	 3.318E-01	-1.090E+00	 1.145E-02	 1.454E-02	 7.243E-03	 5.698E-03
       0.440000	 1.826E+02	-4.744E+05	 8.657E+05	 1.348E+07	 1.076E+05	 6.835E+03	 3.324E-01	-1.085E+00	 1.157E-02	 1.447E-02	 7.300E-03	 5.647E-03
       0.450000	 1.856E+02	-4.724E+05	 8.679E+05	 1.343E+07	 1.076E+05	 6.728E+03	 3.330E-01	-1.080E+00	 1.169E-02	 1.439E-02	 7.354E-03	 5.593E-03
       0.460000	 1.757E+02	-4.703E+05	 8.702E+05	 1.337E+07	 1.074E+05	 6.619E+03	 3.335E-01	-1.074E+00	 1.181E-02	 1.432E-02	 7.406E-03	 5.535E-03
       0.470000	 1.501E+02	-4.682E+05	 8.724E+05	 1.331E+07	 1.070E+05	 6.513E+03	 3.339E-01	-1.069E+00	 1.193E-02	 1.424E-02	 7.455E-03	 5.473E-03
       0.480000	 1.094E+02	-4.661E+05	 8.746E+05	 1.325E+07	 1.065E+05	 6.410E+03	 3.344E-01	-1.063E+00	 1.205E-02	 1.415E-02	 7.501E-03	 5.408E-03
       0.490000	 5.736E+01	-4.640E+05	 8.768E+05	 1.319E+07	 1.058E+05	 6.304E+03	 3.348E-01	-1.057E+00	 1.218E-02	 1.407E-02	 7.545E-03	 5.339E-03
       0.500000	 3.884E-01	-4.618E+05	 8.790E+05	 1.313E+07	 1.052E+05	 6.187E+03	 3.352E-01	-1.051E+00	 1.230E-02	 1.398E-02	 7.588E-03	 5.267E-03
       0.510000	-5.398E+01	-4.596E+05	 8.812E+05	 1.307E+07	 1.048E+05	 6.050E+03	 3.356E-01	-1.045E+00	 1.242E-02	 1.389E-02	 7.630E-03	 5.192E-03
       0.520000	-9.843E+01	-4.574E+05	 8.833E+05	 1.300E+07	 1.047E+05	 5.886E+03	 3.359E-01	-1.039E+00	 1.254E-02	 1.379E-02	 7.672E-03	 5.115E-03
       0.530000	-1.272E+02	-4.552E+05	 8.855E+05	 1.294E+07	 1.050E+05	 5.690E+03	 3.363E-01	-1.032E+00	 1.267E-02	 1.370E-02	 7.715E-03	 5.037E-03
       0.540000	-1.366E+02	-4.529E+05	 8.876E+05	 1.287E+07	 1.059E+05	 5.463E+03	 3.367E-01	-1.025E+00	 1.280E-02	 1.360E-02	 7.760E-03	 4.958E-03
       0.550000	-1.258E+02	-4.505E+05	 8.898E+05	 1.280E+07	 1.072E+05	 5.210E+03	 3.370E-01	-1.018E+00	 1.293E-02	 1.350E-02	 7.807E-03	 4.879E-03
       0.560000	-9.560E+01	-4.481E+05	 8.919E+05	 1.273E+07	 1.091E+05	 4.937E+03	 3.374E-01	-1.011E+00	 1.306E-02	 1.339E-02	 7.856E-03	 4.798E-03
       0.570000	-4.887E+01	-4.457E+05	 8.940E+05	 1.265E+07	 1.115E+05	 4.653E+03	 3.378E-01	-1.004E+00	 1.319E-02	 1.329E-02	 7.906E-03	 4.717E-03
       0.580000	 1.221E+01	-4.432E+05	 8.961E+05	 1.258E+07	 1.143E+05	 4.365E+03	 3.382E-01	-9.971E-01	 1.333E-02	 1.319E-02	 7.958E-03	 4.635E-03
       0.590000	 8.481E+01	-4.406E+05	 8.982E+05	 1.250E+07	 1.176E+05	 4.081E+03	 3.386E-01	-9.898E-01	 1.346E-02	 1.308E-02	 8.010E-03	 4.552E-03
       0.600000	 1.673E+02	-4.381E+05	 9.002E+05	 1.242E+07	 1.214E+05	 3.802E+03	 3.390E-01	-9.824E-01	 1.360E-02	 1.297E-02	 8.063E-03	 4.469E-03
       0.610000	 2.593E+02	-4.354E+05	 9.023E+05	 1.234E+07	 1.255E+05	 3.532E+03	 3.393E-01	-9.749E-01	 1.373E-02	 1.287E-02	 8.116E-03	 4.386E-03
       0.620000	 3.611E+02	-4.328E+05	 9.044E+05	 1.226E+07	 1.299E+05	 3.267E+03	 3.397E-01	-9.673E-01	 1.387E-02	 1.276E-02	 8.170E-03	 4.303E-03
       0.630000	 4.735E+02	-4.301E+05	 9.064E+05	 1.217E+07	 1.348E+05	 3.005E+03	 3.401E-01	-9.596E-01	 1.401E-02	 1.266E-02	 8.224E-03	 4.222E-03
       0.640000	 5.971E+02	-4.273E+05	 9.084E+05	 1.208E+07	 1.399E+05	 2.743E+03	 3.405E-01	-9.519E-01	 1.415E-02	 1.255E-02	 8.277E-03	 4.143E-03
       0.650000	 7.314E+02	-4.246E+05	 9.105E+05	 1.200E+07	 1.453E+05	 2.479E+03	 3.408E-01	-9.441E-01	 1.428E-02	 1.244E-02	 8.332E-03	 4.066E-03
       0.660000	 8.750E+02	-4.218E+05	 9.125E+05	 1.191E+07	 1.509E+05	 2.211E+03	 3.412E-01	-9.362E-01	 1.442E-02	 1.234E-02	 8.386E-03	 3.991E-03
       0.670000	 1.025E+03	-4.190E+05	 9.145E+05	 1.182E+07	 1.566E+05	 1.940E+03	 3.415E-01	-9.283E-01	 1.455E-02	 1.223E-02	 8.440E-03	 3.920E-03
       0.680000	 1.177E+03	-4.161E+05	 9.165E+05	 1.173E+07	 1.624E+05	 1.670E+03	 3.418E-01	-9.204E-01	 1.468E-02	 1.213E-02	 8.494E-03	 3.851E-03
       0.690000	 1.326E+03	-4.133E+05	 9.185E+05	 1.163E+07	 1.680E+05	 1.405E+03	 3.421E-01	-9.124E-01	 1.482E-02	 1.203E-02	 8.547E-03	 3.784E-03
       0.700000	 1.468E+03	-4.104E+05	 9.205E+05	 1.154E+07	 1.734E+05	 1.149E+03	 3.424E-01	-9.043E-01	 1.495E-02	 1.192E-02	 8.599E-03	 3.719E-03
       0.710000	 1.599E+03	-4.075E+05	 9.225E+05	 1.145E+07	 1.785E+05	 9.080E+02	 3.426E-01	-8.962E-01	 1.507E-02	 1.182E-02	 8.649E-03	 3.655E-03
       0.720000	 1.714E+03	-4.045E+05	 9.244E+05	 1.135E+07	 1.832E+05	 6.851E+02	 3.428E-01	-8.881E-01	 1.520E-02	 1.171E-02	 8.698E-03	 3.592E-03
       0.730000	 1.811E+03	-4.016E+05	 9.264E+05	 1.125E+07	 1.875E+05	 4.824E+02	 3.430E-01	-8.799E-01	 1.532E-02	 1.161E-02	 8.745E-03	 3.528E-03
       0.740000	 1.890E+03	-3.986E+05	 9.284E+05	 1.116E+07	 1.912E+05	 3.001E+02	 3.431E-01	-8.716E-01	 1.544E-02	 1.151E-02	 8.791E-03	 3.464E-03
       0.750000	 1.951E+03	-3.956E+05	 9.303E+05	 1.106E+07	 1.945E+05	 1.364E+02	 3.433E-01	-8.633E-01	 1.556E-02	 1.140E-02	 8.835E-03	 3.399E-03
       0.760000	 1.995E+03	-3.926E+05	 9.323E+05	 1.096E+07	 1.972E+05	-1.172E+01	 3.433E-01	-8.549E-01	 1.568E-02	 1.129E-02	 8.877E-03	 3.333E-03
       0.770000	 2.023E+03	-3.895E+05	 9.342E+05	 1.086E+07	 1.994E+05	-1.484E+02	 3.434E-01	-8.465E-01	 1.580E-02	 1.119E-02	 8.919E-03	 3.266E-03
       0.780000	 2.037E+03	-3.865E+05	 9.361E+05	 1.076E+07	 2.011E+05	-2.778E+02	 3.434E-01	-8.380E-01	 1.591E-02	 1.108E-02	 8.959E-03	 3.198E-03
       0.790000	 2.039E+03	-3.834E+05	 9.380E+05	 1.066E+07	 2.024E+05	-4.040E+02	 3.435E-01	-8.295E-01	 1.602E-02	 1.097E-02	 8.999E-03	 3.128E-03
       0.800000	 2.029E+03	-3.803E+05	 9.400E+05	 1.056E+07	 2.032E+05	-5.300E+02	 3.435E-01	-8.209E-01	 1.613E-02	 1.085E-02	 9.039E-03	 3.057E-03
       0.810000	 2.009E+03	-3.773E+05	 9.419E+05	 1.046E+07	 2.036E+05	-6.584E+02	 3.435E-01	-8.123E-01	 1.625E-02	 1.074E-02	 9.079E-03	 2.985E-03
       0.820000	 1.979E+03	-3.742E+05	 9.438E+05	 1.036E+07	 2.036E+05	-7.907E+02	 3.434E-01	-8.036E-01	 1.636E-02	 1.062E-02	 9.118E-03	 2.912E-03
       0.830000	 1.941E+03	-3.711E+05	 9.457E+05	 1.027E+07	 2.033E+05	-9.282E+02	 3.434E-01	-7.948E-01	 1.647E-02	 1.051E-02	 9.158E-03	 2.837E-03
       0.840000	 1.897E+03	-3.680E+05	 9.476E+05	 1.017E+07	 2.026E+05	-1.072E+03	 3.433E-01	-7.860E-01	 1.658E-02	 1.039E-02	 9.198E-03	 2.760E-03
       0.850000	 1.847E+03	-3.650E+05	 9.494E+05	 1.007E+07	 2.017E+05	-1.223E+03	 3.433E-01	-7.772E-01	 1.669E-02	 1.027E-02	 9.239E-03	 2.683E-03
       0.860000	 1.794E+03	-3.620E+05	 9.513E+05	 9.972E+06	 2.006E+05	-1.384E+03	 3.432E-01	-7.683E-01	 1.680E-02	 1.015E-02	 9.280E-03	 2.603E-03
       0.870000	 1.740E+03	-3.589E+05	 9.532E+05	 9.875E+06	 1.993E+05	-1.555E+03	 3.432E-01	-7.594E-01	 1.691E-02	 1.003E-02	 9.323E-03	 2.522E-03
       0.880000	 1.687E+03	-3.559E+05	 9.550E+05	 9.779E+06	 1.979E+05	-1.740E+03	 3.432E-01	-7.506E-01	 1.702E-02	 9.902E-03	 9.367E-03	 2.440E-03
       0.890000	 1.638E+03	-3.529E+05	 9.569E+05	 9.684E+06	 1.965E+05	-1.941E+03	 3.431E-01	-7.416E-01	 1.714E-02	 9.778E-03	 9.412E-03	 2.356E-03
       0.900000	 1.593E+03	-3.500E+05	 9.587E+05	 9.590E+06	 1.950E+05	-2.161E+03	 3.431E-01	-7.327E-01	 1.725E-02	 9.653E-03	 9.459E-03	 2.271E-03
       0.910000	 1.556E+03	-3.470E+05	 9.605E+05	 9.497E+06	 1.935E+05	-2.400E+03	 3.431E-01	-7.238E-01	 1.736E-02	 9.528E-03	 9.508E-03	 2.184E-03
       0.920000	 1.525E+03	-3.441E+05	 9.623E+05	 9.405E+06	 1.920E+05	-2.659E+03	 3.430E-01	-7.150E-01	 1.748E-02	 9.403E-03	 9.559E-03	 2.097E-03
       0.930000	 1.501E+03	-3.412E+05	 9.641E+05	 9.314E+06	 1.906E+05	-2.938E+03	 3.430E-01	-7.061E-01	 1.759E-02	 9.277E-03	 9.611E-03	 2.009E-03
       0.940000	 1.483E+03	-3.383E+05	 9.659E+05	 9.224E+06	 1.892E+05	-3.236E+03	 3.430E-01	-6.973E-01	 1.770E-02	 9.151E-03	 9.665E-03	 1.920E-03
       0.950000	 1.470E+03	-3.355E+05	 9.677E+05	 9.135E+06	 1.878E+05	-3.549E+03	 3.430E-01	-6.885E-01	 1.782E-02	 9.026E-03	 9.721E-03	 1.830E-03
       0.960000	 1.461E+03	-3.326E+05	 9.695E+05	 9.046E+06	 1.863E+05	-3.874E+03	 3.429E-01	-6.797E-01	 1.793E-02	 8.900E-03	 9.777E-03	 1.739E-03
       0.970000	 1.454E+03	-3.298E+05	 9.712E+05	 8.959E+06	 1.848E+05	-4.207E+03	 3.429E-01	-6.710E-01	 1.804E-02	 8.776E-03	 9.834E-03	 1.649E-03
       0.980000	 1.448E+03	-3.269E+05	 9.729E+05	 8.872E+06	 1.833E+05	-4.543E+03	 3.428E-01	-6.624E-01	 1.814E-02	 8.652E-03	 9.891E-03	 1.558E-03
       0.990000	 1.443E+03	-3.241E+05	 9.747E+05	 8.785E+06	 1.817E+05	-4.876E+03	 3.427E-01	-6.539E-01	 1.825E-02	 8.529E-03	 9.948E-03	 1.467E-03
       1.000000	 1.436E+03	-3.213E+05	 9.764E+05	 8.699E+06	 1.799E+05	-5.203E+03	 3.426E-01	-6.454E-01	 1.835E-02	 8.407E-03	 1.000E-02	 1.376E-03
       1.010000	 1.428E+03	-3.184E+05	 9.781E+05	 8.614E+06	 1.780E+05	-5.517E+03	 3.424E-01	-6.371E-01	 1.844E-02	 8.286E-03	 1.006E-02	 1.286E-03
       1.020000	 1.418E+03	-3.156E+05	 9.798E+05	 8.529E+06	 1.760E+05	-5.815E+03	 3.422E-01	-6.288E-01	 1.853E-02	 8.167E-03	 1.011E-02	 1.197E-03
       1.030000	 1.404E+03	-3.127E+05	 9.815E+05	 8.444E+06	 1.738E+05	-6.093E+03	 3.419E-01	-6.206E-01	 1.862E-02	 8.050E-03	 1.017E-02	 1.110E-03
       1.040000	 1.386E+03	-3.099E+05	 9.831E+05	 8.360E+06	 1.714E+05	-6.346E+03	 3.416E-01	-6.126E-01	 1.870E-02	 7.934E-03	 1.022E-02	 1.024E-03
       1.050000	 1.362E+03	-3.070E+05	 9.848E+05	 8.275E+06	 1.688E+05	-6.570E+03	 3.412E-01	-6.047E-01	 1.877E-02	 7.821E-03	 1.027E-02	 9.418E-04
       1.060000	 1.332E+03	-3.041E+05	 9.864E+05	 8.192E+06	 1.660E+05	-6.764E+03	 3.408E-01	-5.970E-01	 1.883E-02	 7.711E-03	 1.031E-02	 8.624E-04
       1.070000	 1.295E+03	-3.012E+05	 9.880E+05	 8.108E+06	 1.629E+05	-6.923E+03	 3.402E-01	-5.894E-01	 1.889E-02	 7.603E-03	 1.036E-02	 7.868E-04
       1.080000	 1.250E+03	-2.983E+05	 9.897E+05	 8.025E+06	 1.596E+05	-7.047E+03	 3.397E-01	-5.819E-01	 1.894E-02	 7.498E-03	 1.040E-02	 7.155E-04
       1.090000	 1.197E+03	-2.954E+05	 9.913E+05	 7.942E+06	 1.560E+05	-7.132E+03	 3.390E-01	-5.746E-01	 1.898E-02	 7.396E-03	 1.043E-02	 6.487E-04
       1.100000	 1.136E+03	-2.925E+05	 9.928E+05	 7.860E+06	 1.522E+05	-7.180E+03	 3.383E-01	-5.675E-01	 1.901E-02	 7.297E-03	 1.047E-02	 5.867E-04
       1.110000	 1.067E+03	-2.896E+05	 9.944E+05	 7.778E+06	 1.482E+05	-7.189E+03	 3.375E-01	-5.606E-01	 1.904E-02	 7.202E-03	 1.050E-02	 5.298E-04
       1.120000	 9.919E+02	-2.867E+05	 9.960E+05	 7.696E+06	 1.440E+05	-7.161E+03	 3.366E-01	-5.538E-01	 1.906E-02	 7.110E-03	 1.052E-02	 4.780E-04
       1.130000	 9.115E+02	-2.838E+05	 9.975E+05	 7.614E+06	 1.396E+05	-7.097E+03	 3.357E-01	-5.472E-01	 1.907E-02	 7.022E-03	 1.055E-02	 4.312E-04
       1.140000	 8.276E+02	-2.808E+05	 9.991E+05	 7.533E+06	 1.351E+05	-6.999E+03	 3.347E-01	-5.408E-01	 1.907E-02	 6.938E-03	 1.057E-02	 3.893E-04
       1.150000	 7.420E+02	-2.779E+05	 1.001E+06	 7.453E+06	 1.305E+05	-6.870E+03	 3.336E-01	-5.346E-01	 1.906E-02	 6.857E-03	 1.059E-02	 3.521E-04
       1.160000	 6.565E+02	-2.750E+05	 1.002E+06	 7.373E+06	 1.259E+05	-6.713E+03	 3.325E-01	-5.286E-01	 1.905E-02	 6.780E-03	 1.061E-02	 3.192E-04
       1.170000	 5.728E+02	-2.720E+05	 1.004E+06	 7.293E+06	 1.214E+05	-6.531E+03	 3.313E-01	-5.227E-01	 1.903E-02	 6.707E-03	 1.062E-02	 2.904E-04
       1.180000	 4.927E+02	-2.691E+05	 1.005E+06	 7.214E+06	 1.168E+05	-6.329E+03	 3.301E-01	-5.170E-01	 1.901E-02	 6.637E-03	 1.064E-02	 2.653E-04
       1.190000	 4.174E+02	-2.662E+05	 1.007E+06	 7.136E+06	 1.124E+05	-6.109E+03	 3.288E-01	-5.115E-01	 1.898E-02	 6.570E-03	 1.065E-02	 2.434E-04
       1.200000	 3.481E+02	-2.632E+05	 1.008E+06	 7.058E+06	 1.081E+05	-5.876E+03	 3.275E-01	-5.062E-01	 1.895E-02	 6.507E-03	 1.066E-02	 2.243E-04
       1.210000	 2.859E+02	-2.603E+05	 1.009E+06	 6.981E+06	 1.040E+05	-5.632E+03	 3.262E-01	-5.010E-01	 1.891E-02	 6.446E-03	 1.067E-02	 2.075E-04
       1.220000	 2.314E+02	-2.574E+05	 1.011E+06	 6.904E+06	 9.998E+04	-5.379E+03	 3.249E-01	-4.960E-01	 1.887E-02	 6.388E-03	 1.068E-02	 1.928E-04
       1.230000	 1.850E+02	-2.544E+05	 1.012E+06	 6.828E+06	 9.617E+04	-5.122E+03	 3.235E-01	-4.911E-01	 1.883E-02	 6.333E-03	 1.069E-02	 1.796E-04
       1.240000	 1.472E+02	-2.515E+05	 1.014E+06	 6.753E+06	 9.255E+04	-4.860E+03	 3.221E-01	-4.864E-01	 1.878E-02	 6.280E-03	 1.070E-02	 1.676E-04
       1.250000	 1.179E+02	-2.485E+05	 1.015E+06	 6.678E+06	 8.912E+04	-4.597E+03	 3.207E-01	-4.818E-01	 1.873E-02	 6.229E-03	 1.071E-02	 1.564E-04
       1.260000	 9.700E+01	-2.456E+05	 1.016E+06	 6.604E+06	 8.586E+04	-4.332E+03	 3.193E-01	-4.773E-01	 1.868E-02	 6.179E-03	 1.073E-02	 1.459E-04
       1.270000	 8.404E+01	-2.427E+05	 1.018E+06	 6.531E+06	 8.276E+04	-4.068E+03	 3.179E-01	-4.729E-01	 1.863E-02	 6.131E-03	 1.074E-02	 1.357E-04
       1.280000	 7.831E+01	-2.398E+05	 1.019E+06	 6.459E+06	 7.979E+04	-3.804E+03	 3.165E-01	-4.687E-01	 1.858E-02	 6.084E-03	 1.075E-02	 1.258E-04
       1.290000	 7.882E+01	-2.369E+05	 1.020E+06	 6.388E+06	 7.693E+04	-3.541E+03	 3.151E-01	-4.645E-01	 1.853E-02	 6.038E-03	 1.077E-02	 1.159E-04
       1.300000	 8.429E+01	-2.340E+05	 1.022E+06	 6.318E+06	 7.414E+04	-3.278E+03	 3.137E-01	-4.604E-01	 1.848E-02	 5.993E-03	 1.078E-02	 1.059E-04
       1.310000	 9.320E+01	-2.311E+05	 1.023E+06	 6.249E+06	 7.138E+04	-3.017E+03	 3.123E-01	-4.565E-01	 1.842E-02	 5.949E-03	 1.080E-02	 9.589E-05
       1.320000	 1.039E+02	-2.283E+05	 1.024E+06	 6.181E+06	 6.859E+04	-2.756E+03	 3.110E-01	-4.526E-01	 1.837E-02	 5.905E-03	 1.082E-02	 8.576E-05
       1.330000	 1.144E+02	-2.254E+05	 1.026E+06	 6.115E+06	 6.574E+04	-2.495E+03	 3.096E-01	-4.487E-01	 1.831E-02	 5.861E-03	 1.083E-02	 7.549E-05
       1.340000	 1.229E+02	-2.226E+05	 1.027E+06	 6.050E+06	 6.276E+04	-2.234E+03	 3.082E-01	-4.450E-01	 1.826E-02	 5.818E-03	 1.085E-02	 6.509E-05
       1.350000	 1.274E+02	-2.198E+05	 1.028E+06	 5.986E+06	 5.962E+04	-1.973E+03	 3.069E-01	-4.413E-01	 1.821E-02	 5.775E-03	 1.087E-02	 5.452E-05
       1.360000	 1.263E+02	-2.171E+05	 1.029E+06	 5.923E+06	 5.626E+04	-1.711E+03	 3.055E-01	-4.377E-01	 1.815E-02	 5.732E-03	 1.089E-02	 4.375E-05
       1.370000	 1.179E+02	-2.143E+05	 1.030E+06	 5.862E+06	 5.264E+04	-1.448E+03	 3.042E-01	-4.341E-01	 1.810E-02	 5.688E-03	 1.091E-02	 3.271E-05
       1.380000	 1.008E+02	-2.116E+05	 1.032E+06	 5.801E+06	 4.874E+04	-1.184E+03	 3.028E-01	-4.306E-01	 1.804E-02	 5.645E-03	 1.093E-02	 2.134E-05
       1.390000	 7.408E+01	-2.089E+05	 1.033E+06	 5.742E+06	 4.452E+04	-9.181E+02	 3.015E-01	-4.271E-01	 1.799E-02	 5.602E-03	 1.095E-02	 9.537E-06
       1.400000	 3.675E+01	-2.063E+05	 1.034E+06	 5.685E+06	 3.997E+04	-6.499E+02	 3.002E-01	-4.236E-01	 1.793E-02	 5.558E-03	 1.096E-02	-2.811E-06
       1.410000	-1.165E+01	-2.037E+05	 1.035E+06	 5.628E+06	 3.507E+04	-3.790E+02	 2.988E-01	-4.202E-01	 1.788E-02	 5.515E-03	 1.098E-02	-1.582E-05
       1.420000	-7.135E+01	-2.010E+05	 1.036E+06	 5.572E+06	 2.983E+04	-1.052E+02	 2.975E-01	-4.168E-01	 1.782E-02	 5.471E-03	 1.100E-02	-2.958E-05
       1.430000	-1.423E+02	-1.984E+05	 1.037E+06	 5.517E+06	 2.426E+04	 1.721E+02	 2.962E-01	-4.135E-01	 1.777E-02	 5.426E-03	 1.101E-02	-4.420E-05
       1.440000	-2.240E+02	-1.959E+05	 1.038E+06	 5.463E+06	 1.837E+04	 4.533E+02	 2.950E-01	-4.101E-01	 1.772E-02	 5.382E-03	 1.103E-02	-5.974E-05
       1.450000	-3.160E+02	-1.933E+05	 1.039E+06	 5.410E+06	 1.219E+04	 7.387E+02	 2.937E-01	-4.068E-01	 1.766E-02	 5.338E-03	 1.105E-02	-7.622E-05
       1.460000	-4.172E+02	-1.907E+05	 1.040E+06	 5.357E+06	 5.750E+03	 1.029E+03	 2.924E-01	-4.035E-01	 1.761E-02	 5.293E-03	 1.106E-02	-9.362E-05
       1.470000	-5.265E+02	-1.881E+05	 1.041E+06	 5.305E+06	-9.034E+02	 1.324E+03	 2.912E-01	-4.003E-01	 1.756E-02	 5.248E-03	 1.108E-02	-1.119E-04
       1.480000	-6.424E+02	-1.856E+05	 1.042E+06	 5.252E+06	-7.723E+03	 1.624E+03	 2.900E-01	-3.971E-01	 1.751E-02	 5.204E-03	 1.110E-02	-1.309E-04
       1.490000	-7.632E+02	-1.830E+05	 1.043E+06	 5.200E+06	-1.465E+04	 1.930E+03	 2.888E-01	-3.938E-01	 1.746E-02	 5.159E-03	 1.112E-02	-1.505E-04
       1.500000	-8.873E+02	-1.805E+05	 1.044E+06	 5.148E+06	-2.164E+04	 2.241E+03	 2.877E-01	-3.906E-01	 1.741E-02	 5.114E-03	 1.113E-02	-1.705E-04
       1.510000	-1.013E+03	-1.779E+05	 1.045E+06	 5.096E+06	-2.862E+04	 2.558E+03	 2.866E-01	-3.875E-01	 1.737E-02	 5.070E-03	 1.115E-02	-1.907E-04
       1.520000	-1.137E+03	-1.753E+05	 1.046E+06	 5.044E+06	-3.553E+04	 2.881E+03	 2.855E-01	-3.843E-01	 1.733E-02	 5.026E-03	 1.117E-02	-2.108E-04
       1.530000	-1.259E+03	-1.727E+05	 1.047E+06	 4.991E+06	-4.232E+04	 3.209E+03	 2.845E-01	-3.812E-01	 1.729E-02	 4.983E-03	 1.120E-02	-2.307E-04
       1.540000	-1.376E+03	-1.701E+05	 1.048E+06	 4.938E+06	-4.892E+04	 3.543E+03	 2.835E-01	-3.781E-01	 1.725E-02	 4.940E-03	 1.122E-02	-2.499E-04
       1.550000	-1.488E+03	-1.674E+05	 1.049E+06	 4.885E+06	-5.528E+04	 3.882E+03	 2.826E-01	-3.750E-01	 1.722E-02	 4.898E-03	 1.124E-02	-2.684E-04
       1.560000	-1.591E+03	-1.648E+05	 1.050E+06	 4.831E+06	-6.135E+04	 4.226E+03	 2.817E-01	-3.719E-01	 1.718E-02	 4.857E-03	 1.127E-02	-2.858E-04
       1.570000	-1.686E+03	-1.621E+05	 1.050E+06	 4.776E+06	-6.710E+04	 4.575E+03	 2.808E-01	-3.688E-01	 1.715E-02	 4.816E-03	 1.130E-02	-3.020E-04
       1.580000	-1.771E+03	-1.595E+05	 1.051E+06	 4.721E+06	-7.250E+04	 4.929E+03	 2.800E-01	-3.658E-01	 1.713E-02	 4.777E-03	 1.132E-02	-3.169E-04
       1.590000	-1.846E+03	-1.568E+05	 1.052E+06	 4.664E+06	-7.751E+04	 5.287E+03	 2.793E-01	-3.627E-01	 1.710E-02	 4.738E-03	 1.135E-02	-3.303E-04
       1.600000	-1.910E+03	-1.540E+05	 1.053E+06	 4.607E+06	-8.213E+04	 5.648E+03	 2.785E-01	-3.597E-01	 1.708E-02	 4.701E-03	 1.139E-02	-3.422E-04
       1.610000	-1.964E+03	-1.513E+05	 1.054E+06	 4.550E+06	-8.635E+04	 6.013E+03	 2.779E-01	-3.566E-01	 1.707E-02	 4.664E-03	 1.142E-02	-3.526E-04
       1.620000	-2.008E+03	-1.485E+05	 1.054E+06	 4.491E+06	-9.017E+04	 6.380E+03	 2.772E-01	-3.536E-01	 1.705E-02	 4.628E-03	 1.145E-02	-3.616E-04
       1.630000	-2.043E+03	-1.458E+05	 1.055E+06	 4.431E+06	-9.361E+04	 6.750E+03	 2.766E-01	-3.506E-01	 1.704E-02	 4.593E-03	 1.149E-02	-3.693E-04
       1.640000	-2.069E+03	-1.430E+05	 1.056E+06	 4.371E+06	-9.667E+04	 7.122E+03	 2.761E-01	-3.475E-01	 1.703E-02	 4.559E-03	 1.152E-02	-3.758E-04
       1.650000	-2.088E+03	-1.401E+05	 1.056E+06	 4.309E+06	-9.939E+04	 7.496E+03	 2.756E-01	-3.444E-01	 1.702E-02	 4.526E-03	 1.156E-02	-3.813E-04
       1.660000	-2.101E+03	-1.373E+05	 1.057E+06	 4.246E+06	-1.018E+05	 7.871E+03	 2.751E-01	-3.413E-01	 1.701E-02	 4.492E-03	 1.160E-02	-3.861E-04
       1.670000	-2.109E+03	-1.344E+05	 1.058E+06	 4.183E+06	-1.039E+05	 8.246E+03	 2.746E-01	-3.381E-01	 1.700E-02	 4.459E-03	 1.163E-02	-3.905E-04
       1.680000	-2.113E+03	-1.315E+05	 1.058E+06	 4.118E+06	-1.057E+05	 8.622E+03	 2.742E-01	-3.349E-01	 1.700E-02	 4.426E-03	 1.167E-02	-3.946E-04
       1.690000	-2.115E+03	-1.286E+05	 1.059E+06	 4.052E+06	-1.073E+05	 8.999E+03	 2.738E-01	-3.317E-01	 1.700E-02	 4.393E-03	 1.171E-02	-3.989E-04
       1.700000	-2.115E+03	-1.257E+05	 1.059E+06	 3.985E+06	-1.086E+05	 9.374E+03	 2.734E-01	-3.284E-01	 1.699E-02	 4.359E-03	 1.174E-02	-4.036E-04
       1.710000	-2.115E+03	-1.227E+05	 1.060E+06	 3.917E+06	-1.098E+05	 9.749E+03	 2.731E-01	-3.250E-01	 1.699E-02	 4.325E-03	 1.178E-02	-4.089E-04
       1.720000	-2.115E+03	-1.197E+05	 1.060E+06	 3.847E+06	-1.108E+05	 1.012E+04	 2.727E-01	-3.215E-01	 1.699E-02	 4.289E-03	 1.181E-02	-4.151E-04
       1.730000	-2.116E+03	-1.167E+05	 1.061E+06	 3.777E+06	-1.116E+05	 1.049E+04	 2.724E-01	-3.179E-01	 1.699E-02	 4.252E-03	 1.185E-02	-4.225E-04
       1.740000	-2.119E+03	-1.137E+05	 1.061E+06	 3.706E+06	-1.123E+05	 1.086E+04	 2.721E-01	-3.142E-01	 1.699E-02	 4.214E-03	 1.188E-02	-4.313E-04
       1.750000	-2.123E+03	-1.106E+05	 1.062E+06	 3.634E+06	-1.129E+05	 1.121E+04	 2.718E-01	-3.104E-01	 1.700E-02	 4.173E-03	 1.192E-02	-4.417E-04
       1.760000	-2.128E+03	-1.076E+05	 1.062E+06	 3.561E+06	-1.133E+05	 1.157E+04	 2.716E-01	-3.064E-01	 1.700E-02	 4.131E-03	 1.195E-02	-4.539E-04
       1.770000	-2.134E+03	-1.045E+05	 1.063E+06	 3.487E+06	-1.135E+05	 1.191E+04	 2.713E-01	-3.023E-01	 1.701E-02	 4.086E-03	 1.198E-02	-4.681E-04
       1.780000	-2.141E+03	-1.014E+05	 1.063E+06	 3.412E+06	-1.136E+05	 1.224E+04	 2.711E-01	-2.981E-01	 1.701E-02	 4.039E-03	 1.201E-02	-4.844E-04
       1.790000	-2.147E+03	-9.833E+04	 1.064E+06	 3.337E+06	-1.135E+05	 1.255E+04	 2.709E-01	-2.937E-01	 1.702E-02	 3.989E-03	 1.204E-02	-5.031E-04
       1.800000	-2.152E+03	-9.523E+04	 1.064E+06	 3.261E+06	-1.132E+05	 1.285E+04	 2.707E-01	-2.892E-01	 1.703E-02	 3.936E-03	 1.208E-02	-5.242E-04
       1.810000	-2.156E+03	-9.213E+04	 1.064E+06	 3.184E+06	-1.127E+05	 1.313E+04	 2.706E-01	-2.845E-01	 1.704E-02	 3.880E-03	 1.211E-02	-5.479E-04
       1.820000	-2.156E+03	-8.903E+04	 1.065E+06	 3.107E+06	-1.120E+05	 1.338E+04	 2.705E-01	-2.797E-01	 1.705E-02	 3.821E-03	 1.214E-02	-5.745E-04
       1.830000	-2.152E+03	-8.592E+04	 1.065E+06	 3.029E+06	-1.109E+05	 1.361E+04	 2.704E-01	-2.746E-01	 1.707E-02	 3.759E-03	 1.217E-02	-6.042E-04
       1.840000	-2.143E+03	-8.281E+04	 1.066E+06	 2.950E+06	-1.096E+05	 1.381E+04	 2.703E-01	-2.694E-01	 1.709E-02	 3.694E-03	 1.220E-02	-6.370E-04
       1.850000	-2.128E+03	-7.970E+04	 1.066E+06	 2.871E+06	-1.080E+05	 1.398E+04	 2.703E-01	-2.640E-01	 1.711E-02	 3.625E-03	 1.223E-02	-6.732E-04
       1.860000	-2.105E+03	-7.660E+04	 1.066E+06	 2.792E+06	-1.060E+05	 1.412E+04	 2.703E-01	-2.584E-01	 1.713E-02	 3.553E-03	 1.227E-02	-7.131E-04
       1.870000	-2.075E+03	-7.349E+04	 1.066E+06	 2.712E+06	-1.037E+05	 1.422E+04	 2.704E-01	-2.527E-01	 1.716E-02	 3.478E-03	 1.230E-02	-7.566E-04
       1.880000	-2.036E+03	-7.039E+04	 1.067E+06	 2.631E+06	-1.010E+05	 1.429E+04	 2.705E-01	-2.467E-01	 1.719E-02	 3.399E-03	 1.234E-02	-8.041E-04
       1.890000	-1.989E+03	-6.729E+04	 1.067E+06	 2.550E+06	-9.795E+04	 1.432E+04	 2.707E-01	-2.406E-01	 1.723E-02	 3.317E-03	 1.237E-02	-8.555E-04
       1.900000	-1.932E+03	-6.418E+04	 1.067E+06	 2.468E+06	-9.452E+04	 1.431E+04	 2.709E-01	-2.342E-01	 1.727E-02	 3.231E-03	 1.241E-02	-9.111E-04
       1.910000	-1.865E+03	-6.107E+04	 1.067E+06	 2.386E+06	-9.071E+04	 1.427E+04	 2.711E-01	-2.277E-01	 1.731E-02	 3.142E-03	 1.245E-02	-9.707E-04
       1.920000	-1.790E+03	-5.796E+04	 1.068E+06	 2.303E+06	-8.654E+04	 1.419E+04	 2.714E-01	-2.210E-01	 1.735E-02	 3.050E-03	 1.249E-02	-1.034E-03
       1.930000	-1.705E+03	-5.484E+04	 1.068E+06	 2.219E+06	-8.200E+04	 1.407E+04	 2.718E-01	-2.142E-01	 1.741E-02	 2.955E-03	 1.254E-02	-1.102E-03
       1.940000	-1.613E+03	-5.172E+04	 1.068E+06	 2.134E+06	-7.713E+04	 1.392E+04	 2.721E-01	-2.071E-01	 1.746E-02	 2.856E-03	 1.258E-02	-1.174E-03
       1.950000	-1.512E+03	-4.858E+04	 1.068E+06	 2.049E+06	-7.194E+04	 1.375E+04	 2.726E-01	-1.999E-01	 1.752E-02	 2.755E-03	 1.263E-02	-1.249E-03
       1.960000	-1.406E+03	-4.544E+04	 1.068E+06	 1.962E+06	-6.646E+04	 1.354E+04	 2.731E-01	-1.925E-01	 1.758E-02	 2.651E-03	 1.268E-02	-1.328E-03
       1.970000	-1.293E+03	-4.228E+04	 1.068E+06	 1.875E+06	-6.072E+04	 1.331E+04	 2.736E-01	-1.849E-01	 1.764E-02	 2.544E-03	 1.273E-02	-1.410E-03
       1.980000	-1.176E+03	-3.910E+04	 1.069E+06	 1.786E+06	-5.475E+04	 1.306E+04	 2.742E-01	-1.772E-01	 1.771E-02	 2.435E-03	 1.278E-02	-1.495E-03
       1.990000	-1.055E+03	-3.591E+04	 1.069E+06	 1.697E+06	-4.859E+04	 1.279E+04	 2.748E-01	-1.693E-01	 1.778E-02	 2.323E-03	 1.283E-02	-1.582E-03