
Predictions were generated on 14-Aug-2020 at 15:43:04 using BeamDyn




Time	TipTDxr   	TipTDyr   	TipTDzr   	TipRDxr   	TipRDyr   	TipRDzr   
(s)	(m)	(m)	(m)	(-)	(-)	(-)
       0.000000	        0.0000000000000000E+00	        0.0000000000000000E+00	        0.0000000000000000E+00	        0.0000000000000000E+00	        0.0000000000000000E+00	        0.0000000000000000E+00
      20.000000	       -7.8039202533435530E+00	        0.0000000000000000E+00	       -4.9533248152908902E+00	        0.0000000000000000E+00	       -1.4179031737545518E+00	        0.0000000000000000E+00
      40.000000	       -7.8039176836825490E+00	        0.0000000000000000E+00	       -4.9533249131155301E+00	        0.0000000000000000E+00	       -1.4179030523808089E+00	        0.0000000000000000E+00
