
Predictions were generated on 14-Dec-2020 at 12:29:05 using BeamDyn




Time	TipTDxr             	TipTDyr             	TipTDzr             	TipRDxr             	TipRDyr             	TipRDzr             
(s)	(m)	(m)	(m)	(-)	(-)	(-)
       0.000000	        0.0000000000000000E+00	        0.0000000000000000E+00	        0.0000000000000000E+00	        0.0000000000000000E+00	        0.0000000000000000E+00	        0.0000000000000000E+00
      20.000000	       -2.3443363308680496E+01	       -1.2334943758850785E-01	        8.4674779540925442E+00	        3.2365556016697400E-03	       -2.8817757618944939E-01	       -9.1249415899369941E-04
      40.000000	       -2.3443351167826378E+01	       -1.2334877077831198E-01	        8.4674743319294095E+00	        3.2365630408069733E-03	       -2.8817738859460518E-01	       -9.1245644405124539E-04
      60.000000	       -2.3443351167826357E+01	       -1.2334877077830748E-01	        8.4674743319293810E+00	        3.2365630408072630E-03	       -2.8817738859460534E-01	       -9.1245644405037998E-04
