
Predictions were generated on 14-Aug-2020 at 15:40:51 using BeamDyn




Time	TipTDxr   	TipTDyr   	TipTDzr   	TipRDxr   	TipRDyr   	TipRDzr   
(s)	(m)	(m)	(m)	(-)	(-)	(-)
       0.000000	        0.0000000000000000E+00	        0.0000000000000000E+00	        0.0000000000000000E+00	        0.0000000000000000E+00	        0.0000000000000000E+00	        0.0000000000000000E+00
      20.000000	       -2.5595123374412565E-01	        0.0000000000000000E+00	       -3.9298703332963925E-03	        0.0000000000000000E+00	       -3.8379938373760962E-02	        0.0000000000000000E+00
      40.000000	       -2.5595123374934614E-01	        0.0000000000000000E+00	       -3.9298704747814384E-03	        0.0000000000000000E+00	       -3.8379938375519333E-02	        0.0000000000000000E+00
