
Predictions were generated on 14-Dec-2020 at 12:28:51 using BeamDyn




Time	TipTDxr             	TipTDyr             	TipTDzr             	TipRDxr             	TipRDyr             	TipRDzr             
(s)	(m)	(m)	(m)	(-)	(-)	(-)
       0.000000	        0.0000000000000000E+00	        0.0000000000000000E+00	        0.0000000000000000E+00	        0.0000000000000000E+00	        0.0000000000000000E+00	        0.0000000000000000E+00
      20.000000	       -8.7882550519037395E+00	       -4.9274458170267127E-02	        3.9453906258300009E+00	        1.2223127402074009E-03	       -1.1080467516589426E-01	       -4.4506752925975776E-04
      40.000000	       -8.7882550479653077E+00	       -4.9274457740374179E-02	        3.9453906217084125E+00	        1.2223127445375979E-03	       -1.1080467508846573E-01	       -4.4506751234336256E-04
      60.000000	       -8.7882550479653077E+00	       -4.9274457740667271E-02	        3.9453906217083841E+00	        1.2223127445176367E-03	       -1.1080467508846514E-01	       -4.4506751238325101E-04
