
Predictions were generated on 14-Aug-2020 at 15:40:29 using BeamDyn




Time	TipTDxr   	TipTDyr   	TipTDzr   	TipRDxr   	TipRDyr   	TipRDzr   
(s)	(m)	(m)	(m)	(-)	(-)	(-)
       0.000000	        0.0000000000000000E+00	        0.0000000000000000E+00	        0.0000000000000000E+00	        0.0000000000000000E+00	        0.0000000000000000E+00	        0.0000000000000000E+00
      20.000000	       -5.1223360944248592E-02	        0.0000000000000000E+00	       -1.5736437398139458E-04	        0.0000000000000000E+00	       -7.6797449675523235E-03	        0.0000000000000000E+00
      40.000000	       -5.1223360944248578E-02	        0.0000000000000000E+00	       -1.5736437398672365E-04	        0.0000000000000000E+00	       -7.6797449675523252E-03	        0.0000000000000000E+00
