
Predictions were generated on 14-Dec-2020 at 12:31:12 using BeamDyn




Time	TipTDxr             	TipTDyr             	TipTDzr             	TipRDxr             	TipRDyr             	TipRDzr             
(s)	(m)	(m)	(m)	(-)	(-)	(-)
       0.000000	        0.0000000000000000E+00	        0.0000000000000000E+00	        0.0000000000000000E+00	        0.0000000000000000E+00	        0.0000000000000000E+00	        0.0000000000000000E+00
      20.000000	       -5.9400535322283607E+00	       -1.1103986003240620E+00	       -2.2450768636986513E+00	       -8.7765884845002837E-03	       -8.8083480053607988E-01	        4.8291321967103157E-01
      40.000000	       -5.9400559359480054E+00	       -1.1104016530953813E+00	       -2.2450782834739762E+00	       -8.7781911202575360E-03	       -8.8083292569506821E-01	        4.8291716692479658E-01
