
Predictions were generated on 14-Dec-2020 at 12:31:24 using BeamDyn




Time	TipTDxr             	TipTDyr             	TipTDzr             	TipRDxr             	TipRDyr             	TipRDzr             
(s)	(m)	(m)	(m)	(-)	(-)	(-)
       0.000000	        0.0000000000000000E+00	        0.0000000000000000E+00	        0.0000000000000000E+00	        0.0000000000000000E+00	        0.0000000000000000E+00	        0.0000000000000000E+00
      20.000000	       -4.9182049019229640E-01	       -6.5672315396358982E-03	       -1.3231242609407445E-02	       -6.7317279459112202E-05	       -6.5536883056798709E-02	        3.6170746056632681E-02
      40.000000	       -4.9182049029534647E-01	       -6.5672315446465568E-03	       -1.3231242598736870E-02	       -6.7317284379323414E-05	       -6.5536882970373161E-02	        3.6170746217820474E-02
