
Predictions were generated on 14-Dec-2020 at 12:30:59 using BeamDyn




Time	TipTDxr             	TipTDyr             	TipTDzr             	TipRDxr             	TipRDyr             	TipRDzr             
(s)	(m)	(m)	(m)	(-)	(-)	(-)
       0.000000	        0.0000000000000000E+00	        0.0000000000000000E+00	        0.0000000000000000E+00	        0.0000000000000000E+00	        0.0000000000000000E+00	        0.0000000000000000E+00
      20.000000	       -7.3364414794319392E+00	       -1.8849831914987807E+00	       -3.8308370799734242E+00	       -6.0738772873547911E-03	       -1.1649817635664643E+00	        6.3409869294519039E-01
      40.000000	       -7.3364414166069229E+00	       -1.8849830014066524E+00	       -3.8308370988538325E+00	       -6.0738142925417082E-03	       -1.1649818318381544E+00	        6.3409856121668096E-01
