
Predictions were generated on 14-Aug-2020 at 15:42:59 using BeamDyn




Time	TipTDxr   	TipTDyr   	TipTDzr   	TipRDxr   	TipRDyr   	TipRDzr   
(s)	(m)	(m)	(m)	(-)	(-)	(-)
       0.000000	        0.0000000000000000E+00	        0.0000000000000000E+00	        0.0000000000000000E+00	        0.0000000000000000E+00	        0.0000000000000000E+00	        0.0000000000000000E+00
      20.000000	       -7.4876055940844077E+00	        0.0000000000000000E+00	       -4.4068775317114541E+00	        0.0000000000000000E+00	       -1.3386311188639657E+00	        0.0000000000000000E+00
      40.000000	       -7.4876055885186661E+00	        0.0000000000000000E+00	       -4.4068775312221193E+00	        0.0000000000000000E+00	       -1.3386311183904887E+00	        0.0000000000000000E+00
