
Predictions were generated on 17-Aug-2020 at 09:33:29 using BeamDyn




Time	TipTDxr   	TipTDyr   	TipTDzr   	TipRDxr   	TipRDyr   	TipRDzr   
(s)	(m)	(m)	(m)	(-)	(-)	(-)
       0.000000	        0.0000000000000000E+00	        0.0000000000000000E+00	        0.0000000000000000E+00	        0.0000000000000000E+00	        0.0000000000000000E+00	        0.0000000000000000E+00
      20.000000	       -3.3826565404994255E+00	        0.0000000000000000E+00	       -7.1528069373563241E-01	        0.0000000000000000E+00	       -5.2256773096721876E-01	        0.0000000000000000E+00
      40.000000	       -3.3826639612311458E+00	        0.0000000000000000E+00	       -7.1528500991181687E-01	        0.0000000000000000E+00	       -5.2256930946299585E-01	        0.0000000000000000E+00
