
Predictions were generated on 14-Aug-2020 at 15:41:04 using BeamDyn




Time	TipTDxr   	TipTDyr   	TipTDzr   	TipRDxr   	TipRDyr   	TipRDzr   
(s)	(m)	(m)	(m)	(-)	(-)	(-)
       0.000000	        0.0000000000000000E+00	        0.0000000000000000E+00	        0.0000000000000000E+00	        0.0000000000000000E+00	        0.0000000000000000E+00	        0.0000000000000000E+00
      20.000000	       -1.5010427794511580E+00	        0.0000000000000000E+00	       -1.3618757441991214E-01	        0.0000000000000000E+00	       -2.2632762480339305E-01	        0.0000000000000000E+00
      40.000000	       -1.5010443055317937E+00	        0.0000000000000000E+00	       -1.3618786015285522E-01	        0.0000000000000000E+00	       -2.2632786979738542E-01	        0.0000000000000000E+00
