
Predictions were generated on 02-Sep-2020 at 13:16:20 using BeamDyn




Time	TipTDxr             	TipTDyr             	TipTDzr             	TipRDxr             	TipRDyr             	TipRDzr             
(s)	(m)	(m)	(m)	(-)	(-)	(-)
       0.000000	        0.0000000000000000E+00	        0.0000000000000000E+00	        0.0000000000000000E+00	        0.0000000000000000E+00	        0.0000000000000000E+00	        0.0000000000000000E+00
      20.000000	       -5.1537042793081120E+00	       -2.5541571746853110E-02	       -1.2968427048969033E-01	        6.8218099093855344E-04	       -5.8672125299717881E-02	        1.7697997402126927E-05
      40.000000	       -5.1537043474335205E+00	       -2.5541567114676214E-02	       -1.2968428432220946E-01	        6.8218128296573680E-04	       -5.8672126320636543E-02	        1.7686754135136194E-05
      60.000000	       -5.1537043474336768E+00	       -2.5541567114710916E-02	       -1.2968428432223789E-01	        6.8218128296503120E-04	       -5.8672126320638493E-02	        1.7686754178606996E-05
