
Predictions were generated on 02-Sep-2020 at 13:16:07 using BeamDyn




Time	TipTDxr             	TipTDyr             	TipTDzr             	TipRDxr             	TipRDyr             	TipRDzr             
(s)	(m)	(m)	(m)	(-)	(-)	(-)
       0.000000	        0.0000000000000000E+00	        0.0000000000000000E+00	        0.0000000000000000E+00	        0.0000000000000000E+00	        0.0000000000000000E+00	        0.0000000000000000E+00
      20.000000	       -2.4869568172816344E+01	       -1.2679291529592004E-01	       -3.0618901402458221E+00	        3.3269447401062333E-03	       -2.8599941961959169E-01	        4.1250435438320790E-04
      40.000000	       -2.4869409068986652E+01	       -1.2679634102233872E-01	       -3.0618490474641931E+00	        3.3269029673570040E-03	       -2.8599717081421777E-01	        4.1299057521470276E-04
      60.000000	       -2.4869409068987640E+01	       -1.2679634102247714E-01	       -3.0618490474644204E+00	        3.3269029673568904E-03	       -2.8599717081422432E-01	        4.1299057522177805E-04
