
Predictions were generated on 14-Dec-2020 at 12:31:33 using BeamDyn




Time	TipTDxr             	TipTDyr             	TipTDzr             	TipRDxr             	TipRDyr             	TipRDzr             
(s)	(m)	(m)	(m)	(-)	(-)	(-)
       0.000000	        0.0000000000000000E+00	        0.0000000000000000E+00	        0.0000000000000000E+00	        0.0000000000000000E+00	        0.0000000000000000E+00	        0.0000000000000000E+00
      20.000000	       -7.6576475260901935E+00	       -2.1182589274799821E+00	       -4.3151617197712886E+00	       -1.3139687915764958E-03	       -1.2366034427368993E+00	        6.7095875968862873E-01
      40.000000	       -7.6576473921793946E+00	       -2.1182585255664770E+00	       -4.3151617420569881E+00	       -1.3137558520115924E-03	       -1.2366036296702547E+00	        6.7095840330589329E-01
