
Predictions were generated on 14-Dec-2020 at 12:29:00 using BeamDyn




Time	TipTDxr             	TipTDyr             	TipTDzr             	TipRDxr             	TipRDyr             	TipRDzr             
(s)	(m)	(m)	(m)	(-)	(-)	(-)
       0.000000	        0.0000000000000000E+00	        0.0000000000000000E+00	        0.0000000000000000E+00	        0.0000000000000000E+00	        0.0000000000000000E+00	        0.0000000000000000E+00
      20.000000	       -1.8408925558540197E+01	       -9.8703325940493983E-02	        7.1855032619985764E+00	        2.5449683700497065E-03	       -2.2802386960018312E-01	       -7.8811974314320582E-04
      40.000000	       -1.8408925550554361E+01	       -9.8703325394123728E-02	        7.1855032580868254E+00	        2.5449683790519785E-03	       -2.2802386947210743E-01	       -7.8811971038093018E-04
      60.000000	       -1.8408925550554397E+01	       -9.8703325394341832E-02	        7.1855032580867686E+00	        2.5449683790348949E-03	       -2.2802386947210609E-01	       -7.8811971041838991E-04
