
Predictions were generated on 14-Aug-2020 at 15:40:39 using BeamDyn




Time	TipTDxr   	TipTDyr   	TipTDzr   	TipRDxr   	TipRDyr   	TipRDzr   
(s)	(m)	(m)	(m)	(-)	(-)	(-)
       0.000000	        0.0000000000000000E+00	        0.0000000000000000E+00	        0.0000000000000000E+00	        0.0000000000000000E+00	        0.0000000000000000E+00	        0.0000000000000000E+00
      20.000000	       -1.5363694194263144E-01	        0.0000000000000000E+00	       -1.4157702215520374E-03	        0.0000000000000000E+00	       -2.3035474910502222E-02	        0.0000000000000000E+00
      40.000000	       -1.5363694194258590E-01	        0.0000000000000000E+00	       -1.4157702252415305E-03	        0.0000000000000000E+00	       -2.3035474910508155E-02	        0.0000000000000000E+00
